configurer SUMO 


netconvert --osm-files map.osm --output-file map.net.xml --osm.all-attributes --geometry.remove --roundabouts.guess --ramps.guess --junctions.join --tls.guess-signals --tls.discard-simple --tls.join --junctions.join-same true --output.street-names true --dismiss-vclasses
randomTrips.py -n map.net.xml -e 1000 -o map.trips.xml 
duarouter -n map.net.xml --route-files map.trips.xml -o map.rou.xml --ignore-errors
touch map.sumo.cfg





fichier map.sumo.cfg:

<?xml version="1.0" encoding="iso-8859-1"?>

<configuration xmlns:xsi="http://www.w3.org/2001/XMLSchema-instance" xsi:noNamespaceSchemaLocation=" http://sumo.sf.net/xsd/sumoConfiguration.xsd">
    <input>
        <net-file value="map.net.xml"/>
        <route-files value="map.rou.xml"/>
    </input>
    <time>
        <begin value="0"/>
        <end value="1000"/>
    </time>
<output>
    <!-- Fichier contenant les informations des trajets des véhicules -->
    <tripinfo-output value="tripinfo.xml"/>

    <!-- Fichier contenant les positions et vitesses des véhicules -->
    <fcd-output value="fcd.xml"/>

    <!-- Résumé global du trafic (nombre de véhicules, durée moyenne, etc.) -->
    <summary-output value="summary.xml"/>

    <!-- Données de trafic sur les routes -->
    <edgedata-output value="edgeData.xml"/>
</output>
</configuration>